
Scratch directory: /tmp/

         ----------------------------------------------------------
                                   FINDIF
                     R. A. King and Jonathon Misiewicz
         ----------------------------------------------------------

  Using finite-differences of energies to determine gradients.
    Generating geometries for use with 3-point formula.
    Displacement size will be 5.00e-03.
    Number of atoms is 3.
    Number of symmetric SALCs is 3.
    Translations projected? 1. Rotations projected? 1.
    Number of geometries (including reference) is 7.
 7 displacements needed ...

  //>>>>>>>>>>>>>>>>>>>>>>>>>>>>>>>>>>>//
  //    FiniteDifference Computations  //
  //<<<<<<<<<<<<<<<<<<<<<<<<<<<<<<<<<<<//


    -----------------------------------------------------------------------
          Psi4: An Open-Source Ab Initio Electronic Structure Package
                               Psi4 1.8.1 release

                         Git: Rev {} zzzzzzz 


    D. G. A. Smith, L. A. Burns, A. C. Simmonett, R. M. Parrish,
    M. C. Schieber, R. Galvelis, P. Kraus, H. Kruse, R. Di Remigio,
    A. Alenaizan, A. M. James, S. Lehtola, J. P. Misiewicz, M. Scheurer,
    R. A. Shaw, J. B. Schriber, Y. Xie, Z. L. Glick, D. A. Sirianni,
    J. S. O'Brien, J. M. Waldrop, A. Kumar, E. G. Hohenstein,
    B. P. Pritchard, B. R. Brooks, H. F. Schaefer III, A. Yu. Sokolov,
    K. Patkowski, A. E. DePrince III, U. Bozkaya, R. A. King,
    F. A. Evangelista, J. M. Turney, T. D. Crawford, C. D. Sherrill,
    J. Chem. Phys. 152(18) 184108 (2020). https://doi.org/10.1063/5.0006002

                            Additional Code Authors
    E. T. Seidl, C. L. Janssen, E. F. Valeev, M. L. Leininger,
    J. F. Gonthier, R. M. Richard, H. R. McAlexander, M. Saitow, X. Wang,
    P. Verma, M. H. Lechner, A. Jiang, S. Behnle, A. G. Heide,
    M. F. Herbst, and D. L. Poole

             Previous Authors, Complete List of Code Contributors,
                       and Citations for Specific Modules
    https://github.com/psi4/psi4/blob/master/codemeta.json
    https://github.com/psi4/psi4/graphs/contributors
    http://psicode.org/psi4manual/master/introduction.html#citing-psifour

    -----------------------------------------------------------------------


    Psi4 started on: Friday, 13 October 2023 01:01PM

    Process ID: 23918
    Host:       beboplogin2
    PSIDATADIR: /lcrc/project/PACC/conda/elliott/miniconda3/envs/jitterbug/share/psi4
    Memory:     3.8 GiB
    Threads:    12
    
  ==> Input QCSchema <==

--------------------------------------------------------------------------
{'driver': 'energy',
 'extras': {'psiapi': True, 'wfn_qcvars_only': True},
 'id': None,
 'keywords': {'CCTRANSORT__WFN': 'CCSD_T',
              'E_CONVERGENCE': 1e-08,
              'PARENT_SYMMETRY': 'C1',
              'SCF__D_CONVERGENCE': 1e-10,
              'SCF__E_CONVERGENCE': 1e-10,
              'SCF__INTS_TOLERANCE': 1e-12,
              'function_kwargs': {}},
 'model': {'basis': 'cc-pvdz', 'method': 'ccsd(t)'},
 'molecule': {'atom_labels': ['', '', ''],
              'atomic_numbers': [8, 1, 1],
              'extras': {},
              'fix_com': True,
              'fix_orientation': True,
              'fix_symmetry': 'c1',
              'fragment_charges': [0.0],
              'fragment_multiplicities': [1],
              'fragments': [[0, 1, 2]],
              'geometry': [2.3955938468489535e-05, -0.1286167964673729, 0.0, 1.417441028166314, 1.0208772696959882, 0.0,
                           -1.4178212262941554, 1.0203646248283749, 0.0],
              'mass_numbers': [16, 1, 1],
              'masses': [15.99491461957, 1.00782503223, 1.00782503223],
              'molecular_charge': 0.0,
              'molecular_multiplicity': 1,
              'name': 'H2O',
              'provenance': {'creator': 'QCElemental',
                             'routine': 'qcelemental.molparse.from_string',
                             'version': '0.26.0'},
              'real': [True, True, True],
              'schema_name': 'qcschema_molecule',
              'schema_version': 2,
              'symbols': ['O', 'H', 'H'],
              'validated': True},
 'protocols': {'stdout': True},
 'provenance': {'creator': 'QCElemental', 'routine': 'qcelemental.models.results', 'version': '0.26.0'},
 'schema_name': 'qcschema_input',
 'schema_version': 1}
--------------------------------------------------------------------------

Scratch directory: /tmp/
   => Libint2 <=

    Primary   basis highest AM E, G, H:  5, 4, 3
    Auxiliary basis highest AM E, G, H:  6, 5, 4
    Onebody   basis highest AM E, G, H:  6, 5, 4
    Solid Harmonics ordering:            gaussian

*** tstart() called on beboplogin2
*** at Fri Oct 13 13:34:56 2023

   => Loading Basis Set <=

    Name: CC-PVDZ
    Role: ORBITAL
    Keyword: BASIS
    atoms 1   entry O          line   198 file /lcrc/project/PACC/conda/elliott/miniconda3/envs/jitterbug/share/psi4/basis/cc-pvdz.gbs 
    atoms 2-3 entry H          line    22 file /lcrc/project/PACC/conda/elliott/miniconda3/envs/jitterbug/share/psi4/basis/cc-pvdz.gbs 


         ---------------------------------------------------------
                                   SCF
               by Justin Turney, Rob Parrish, Andy Simmonett
                          and Daniel G. A. Smith
                              RHF Reference
                       12 Threads,   3906 MiB Core
         ---------------------------------------------------------

  ==> Geometry <==

    Molecular point group: c1
    Full point group: Cs

    Geometry (in Bohr), charge = 0, multiplicity = 1:

       Center              X                  Y                   Z               Mass       
    ------------   -----------------  -----------------  -----------------  -----------------
         O            0.000023955938    -0.128616796467     0.000000000000    15.994914619570
         H            1.417441028166     1.020877269696     0.000000000000     1.007825032230
         H           -1.417821226294     1.020364624828     0.000000000000     1.007825032230

  Running in c1 symmetry.

  Rotational constants: A =     25.46272  B =     14.86116  C =      9.38415 [cm^-1]
  Rotational constants: A = 763353.01209  B = 445526.25447  C = 281329.83808 [MHz]
  Nuclear repulsion =    9.120086901313162

  Charge       = 0
  Multiplicity = 1
  Electrons    = 10
  Nalpha       = 5
  Nbeta        = 5

  ==> Algorithm <==

  SCF Algorithm Type is PK.
  DIIS enabled.
  MOM disabled.
  Fractional occupation disabled.
  Guess Type is SAD.
  Energy threshold   = 1.00e-10
  Density threshold  = 1.00e-10
  Integral threshold = 1.00e-12

  ==> Primary Basis <==

  Basis Set: CC-PVDZ
    Blend: CC-PVDZ
    Number of shells: 12
    Number of basis functions: 24
    Number of Cartesian functions: 25
    Spherical Harmonics?: true
    Max angular momentum: 2

  ==> Integral Setup <==

  Using in-core PK algorithm.
   Calculation information:
      Number of atoms:                   3
      Number of AO shells:              12
      Number of primitives:             32
      Number of atomic orbitals:        25
      Number of basis functions:        24

      Integral cutoff                 1.00e-12
      Number of threads:                12

  Performing in-core PK
  Using 90300 doubles for integral storage.
  We computed 7838 shell quartets total.
  Whereas there are 3081 unique shell quartets.
   154.40 percent of shell quartets recomputed by reordering.

  ==> DiskJK: Disk-Based J/K Matrices <==

    J tasked:                  Yes
    K tasked:                  Yes
    wK tasked:                  No
    Memory [MiB]:             2929
    Schwarz Cutoff:          1E-12

    OpenMP threads:             12

  Minimum eigenvalue in the overlap matrix is 3.4429283488E-02.
  Reciprocal condition number of the overlap matrix is 9.2739393525E-03.
    Using symmetric orthogonalization.

  ==> Pre-Iterations <==

  SCF Guess: Superposition of Atomic Densities via on-the-fly atomic UHF (no occupation information).

   -------------------------
    Irrep   Nso     Nmo    
   -------------------------
     A         24      24 
   -------------------------
    Total      24      24
   -------------------------

  ==> Iterations <==

                        Total Energy        Delta E     RMS |[F,P]|

   @RHF iter SAD:   -75.50281439314186   -7.55028e+01   0.00000e+00 
   @RHF iter   1:   -75.95250372878483   -4.49689e-01   1.74242e-02 ADIIS/DIIS
   @RHF iter   2:   -76.00612556609752   -5.36218e-02   1.00825e-02 ADIIS/DIIS
   @RHF iter   3:   -76.02567403253026   -1.95485e-02   1.07730e-03 ADIIS/DIIS
   @RHF iter   4:   -76.02613757834662   -4.63546e-04   2.15932e-04 ADIIS/DIIS
   @RHF iter   5:   -76.02615810369670   -2.05254e-05   3.90917e-05 DIIS
   @RHF iter   6:   -76.02615903354351   -9.29847e-07   5.87998e-06 DIIS
   @RHF iter   7:   -76.02615905587577   -2.23323e-08   7.17538e-07 DIIS
   @RHF iter   8:   -76.02615905620527   -3.29507e-10   1.67530e-07 DIIS
   @RHF iter   9:   -76.02615905622827   -2.29932e-11   3.45410e-08 DIIS
   @RHF iter  10:   -76.02615905622920   -9.37916e-13   2.89199e-09 DIIS
   @RHF iter  11:   -76.02615905622923   -2.84217e-14   4.98446e-10 DIIS
   @RHF iter  12:   -76.02615905622915    8.52651e-14   2.80354e-11 DIIS
  Energy and wave function converged.


  ==> Post-Iterations <==

    Orbital Energies [Eh]
    ---------------------

    Doubly Occupied:                                                      

       1A    -20.553325     2A     -1.334478     3A     -0.689881  
       4A     -0.570285     5A     -0.493489  

    Virtual:                                                              

       6A      0.183600     7A      0.255267     8A      0.774812  
       9A      0.857766    10A      1.166407    11A      1.199562  
      12A      1.256562    13A      1.421719    14A      1.482709  
      15A      1.658651    16A      1.863679    17A      1.940738  
      18A      2.426868    19A      2.474186    20A      3.291253  
      21A      3.320948    22A      3.507364    23A      3.839342  
      24A      4.151835  

    Final Occupation by Irrep:
              A 
    DOCC [     5 ]
    NA   [     5 ]
    NB   [     5 ]

  @RHF Final Energy:   -76.02615905622915

   => Energetics <=

    Nuclear Repulsion Energy =              9.1200869013131616
    One-Electron Energy =                -123.0095740076642414
    Two-Electron Energy =                  37.8633280501219360
    Total Energy =                        -76.0261590562291474

Computation Completed


Properties will be evaluated at   0.000000,   0.000000,   0.000000 [a0]

Properties computed using the SCF density matrix


 Multipole Moments:

 ------------------------------------------------------------------------------------
     Multipole            Electronic (a.u.)      Nuclear  (a.u.)        Total (a.u.)
 ------------------------------------------------------------------------------------

 L = 1.  Multiply by 2.5417464519 to convert [e a0] to [Debye]
 Dipole X            :          0.0000358           -0.0001886           -0.0001527
 Dipole Y            :         -0.1848698            1.0123075            0.8274377
 Dipole Z            :          0.0000000            0.0000000            0.0000000
 Magnitude           :                                                    0.8274377

 ------------------------------------------------------------------------------------

*** tstop() called on beboplogin2 at Fri Oct 13 13:34:57 2023
Module time:
	user time   =       4.65 seconds =       0.08 minutes
	system time =       0.37 seconds =       0.01 minutes
	total time  =          1 seconds =       0.02 minutes
Total time:
	user time   =    5922.38 seconds =      98.71 minutes
	system time =     455.21 seconds =       7.59 minutes
	total time  =       2019 seconds =      33.65 minutes
 MINTS: Wrapper to libmints.
   by Justin Turney

   Calculation information:
      Number of threads:                12
      Number of atoms:                   3
      Number of AO shells:              12
      Number of SO shells:              12
      Number of primitives:             32
      Number of atomic orbitals:        25
      Number of basis functions:        24

      Number of irreps:                  1
      Integral cutoff                 1.00e-12
      Number of functions per irrep: [  24 ]

 OEINTS: Overlap, kinetic, potential, dipole, and quadrupole integrals
         stored in file 35.

      Computing two-electron integrals...done
      Computed 22139 non-zero two-electron integrals.
        Stored in file 33.


*** tstart() called on beboplogin2
*** at Fri Oct 13 13:34:57 2023


	Wfn Parameters:
	--------------------
	Wavefunction         = CCSD_T
	Number of irreps     = 1
	Number of MOs        = 24
	Number of active MOs = 24
	AO-Basis             = NONE
	Semicanonical        = false
	Reference            = RHF
	Print Level          = 1

	IRREP	# MOs	# FZDC	# DOCC	# SOCC	# VIRT	# FZVR
	-----	-----	------	------	------	------	------
	 A	   24	    0	    5	    0	    19	    0
	Transforming integrals...
	IWL integrals will be deleted.
	(OO|OO)...
	Presorting SO-basis two-electron integrals.
	Sorting File: SO Ints (nn|nn) nbuckets = 1
	Constructing frozen core operators
	Starting first half-transformation.
	Sorting half-transformed integrals.
	First half integral transformation complete.
	Starting second half-transformation.
	Two-electron integral transformation complete.
	(OO|OV)...
	Starting second half-transformation.
	Two-electron integral transformation complete.
	(OO|VV)...
	Starting second half-transformation.
	Two-electron integral transformation complete.
	(OV|OO)...
	Starting first half-transformation.
	Sorting half-transformed integrals.
	First half integral transformation complete.
	Starting second half-transformation.
	Two-electron integral transformation complete.
	(OV|OV)...
	Starting second half-transformation.
	Two-electron integral transformation complete.
	(OV|VV)...
	Starting second half-transformation.
	Two-electron integral transformation complete.
	(VV|OO)...
	Starting first half-transformation.
	Sorting half-transformed integrals.
	First half integral transformation complete.
	Starting second half-transformation.
	Two-electron integral transformation complete.
	(VV|OV)...
	Starting second half-transformation.
	Two-electron integral transformation complete.
	(VV|VV)...
	Starting second half-transformation.
	Two-electron integral transformation complete.
	Frozen core energy     =      0.00000000000000

	Size of irrep 0 of <ab|cd> integrals:      0.130 (MW) /      1.043 (MB)
	Total:                                     0.130 (MW) /      1.043 (MB)

	Size of irrep 0 of <ia|bc> integrals:      0.034 (MW) /      0.274 (MB)
	Total:                                     0.034 (MW) /      0.274 (MB)

	Size of irrep 0 of tijab amplitudes:       0.009 (MW) /      0.072 (MB)
	Total:                                     0.009 (MW) /      0.072 (MB)

	Nuclear Rep. energy          =      9.12008690131316
	SCF energy                   =    -76.02615905622915
	One-electron energy          =   -123.00957400737192
	Two-electron energy          =     37.86332804982953
	Reference energy             =    -76.02615905622923

*** tstop() called on beboplogin2 at Fri Oct 13 13:34:57 2023
Module time:
	user time   =       1.38 seconds =       0.02 minutes
	system time =       0.18 seconds =       0.00 minutes
	total time  =          0 seconds =       0.00 minutes
Total time:
	user time   =    5924.83 seconds =      98.75 minutes
	system time =     455.51 seconds =       7.59 minutes
	total time  =       2019 seconds =      33.65 minutes
            **************************
            *                        *
            *        CCENERGY        *
            *                        *
            **************************

    Nuclear Rep. energy (wfn)     =    9.120086901313162
    SCF energy          (wfn)     =  -76.026159056229147
    Reference energy    (file100) =  -76.026159056229233

    Input parameters:
    -----------------
    Wave function   =     CCSD_T
    Reference wfn   =     RHF
    Brueckner       =     No
    Memory (Mbytes) =     4096.0
    Maxiter         =     50
    R_Convergence   =     1.0e-07
    E_Convergence   =     1.0e-08
    Restart         =     Yes
    DIIS            =     Yes
    AO Basis        =     NONE
    ABCD            =     NEW
    Cache Level     =     2
    Cache Type      =     LOW
    Print Level     =     1
    Num. of threads =     12
    # Amps to Print =     10
    Print MP2 Amps? =     No
    Analyze T2 Amps =     No
    Print Pair Ener =     No
    Local CC        =     No
    SCS-MP2         =     False
    SCSN-MP2        =     False
    SCS-CCSD        =     False

MP2 correlation energy -0.2048266386302176
                Solving CC Amplitude Equations
                ------------------------------
  Iter             Energy              RMS        T1Diag      D1Diag    New D1Diag    D2Diag
  ----     ---------------------    ---------   ----------  ----------  ----------   --------
     0        -0.204826638630218    0.000e+00    0.000000    0.000000    0.000000    0.110555
     1        -0.209642046041028    2.695e-02    0.004126    0.008810    0.008810    0.117502
     2        -0.213668115040331    9.587e-03    0.004869    0.010147    0.010147    0.122999
     3        -0.214102017141365    2.533e-03    0.005321    0.010958    0.010958    0.124293
     4        -0.214113008033187    5.768e-04    0.005362    0.011165    0.011165    0.124502
     5        -0.214125067195502    1.715e-04    0.005385    0.011278    0.011278    0.124540
     6        -0.214123156193108    5.652e-05    0.005393    0.011324    0.011324    0.124533
     7        -0.214122923771478    1.525e-05    0.005397    0.011339    0.011339    0.124531
     8        -0.214122798247431    2.678e-06    0.005397    0.011340    0.011340    0.124531
     9        -0.214122747999556    6.620e-07    0.005397    0.011341    0.011341    0.124531
    10        -0.214122763532576    1.348e-07    0.005397    0.011341    0.011341    0.124531
    11        -0.214122762089467    2.872e-08    0.005397    0.011341    0.011341    0.124531
    12        -0.214122762394478    4.788e-09    0.005397    0.011341    0.011341    0.124531

    Iterations converged.


    Largest TIA Amplitudes:
              3   0         0.0076865031
              2  12         0.0074694112
              2   1        -0.0060403713
              3  13         0.0051770160
              2   6         0.0048869570
              1   4         0.0043041914
              1   0        -0.0036015123
              4   9        -0.0033883142
              4   5        -0.0032205497
              3   3        -0.0031179136

    Largest TIjAb Amplitudes:
      4   4   5   5        -0.0514074788
      2   2   2   2        -0.0363897917
      3   3   4   4        -0.0343854692
      2   2   1   1        -0.0306520569
      3   4   4   5         0.0281039825
      4   3   5   4         0.0281039825
      2   2   3   3        -0.0275043287
      3   3   2   2        -0.0259081125
      2   4   6   5        -0.0229687442
      4   2   5   6        -0.0229687442

    SCF energy       (wfn)                    =  -76.026159056229147
    Reference energy (file100)                =  -76.026159056229233

    Opposite-spin MP2 correlation energy      =   -0.153133739504390
    Same-spin MP2 correlation energy          =   -0.051692899125827
    Singles MP2 correlation energy            =   -0.000000000000000
    MP2 correlation energy                    =   -0.204826638630218
      * MP2 total energy                      =  -76.230985694859456

    Opposite-spin CCSD correlation energy     =   -0.168039050282844
    Same-spin CCSD correlation energy         =   -0.046083712111634
    Singles CCSD correlation energy           =    0.000000000000000
    CCSD correlation energy                   =   -0.214122762394478
      * CCSD total energy                     =  -76.240281818623714

            **************************
            *                        *
            *        CCTRIPLES       *
            *                        *
            **************************


    Wave function   =    CCSD_T
    Reference wfn   =      RHF

    Nuclear Rep. energy (wfn)                =    9.120086901313162
    SCF energy          (wfn)                =  -76.026159056229147
    Reference energy    (file100)            =  -76.026159056229233
    CCSD energy         (file100)            =   -0.214122762394478
    Total CCSD energy   (file100)            =  -76.240281818623714

    Number of ijk index combinations:               35
    Memory available in words               :       512000000
    Approx. words needed per explicit thread:           27436
    Number of threads for explicit ijk threading:   12

    MKL num_threads set to 1 for explicit threading.

    (T) energy                                =   -0.003123129436460
      * CCSD(T) total energy                  =  -76.243404948060174


    Psi4 stopped on: Friday, 13 October 2023 01:34PM
    Psi4 wall time for execution: 0:00:01.43


    -----------------------------------------------------------------------
          Psi4: An Open-Source Ab Initio Electronic Structure Package
                               Psi4 1.8.1 release

                         Git: Rev {} zzzzzzz 


    D. G. A. Smith, L. A. Burns, A. C. Simmonett, R. M. Parrish,
    M. C. Schieber, R. Galvelis, P. Kraus, H. Kruse, R. Di Remigio,
    A. Alenaizan, A. M. James, S. Lehtola, J. P. Misiewicz, M. Scheurer,
    R. A. Shaw, J. B. Schriber, Y. Xie, Z. L. Glick, D. A. Sirianni,
    J. S. O'Brien, J. M. Waldrop, A. Kumar, E. G. Hohenstein,
    B. P. Pritchard, B. R. Brooks, H. F. Schaefer III, A. Yu. Sokolov,
    K. Patkowski, A. E. DePrince III, U. Bozkaya, R. A. King,
    F. A. Evangelista, J. M. Turney, T. D. Crawford, C. D. Sherrill,
    J. Chem. Phys. 152(18) 184108 (2020). https://doi.org/10.1063/5.0006002

                            Additional Code Authors
    E. T. Seidl, C. L. Janssen, E. F. Valeev, M. L. Leininger,
    J. F. Gonthier, R. M. Richard, H. R. McAlexander, M. Saitow, X. Wang,
    P. Verma, M. H. Lechner, A. Jiang, S. Behnle, A. G. Heide,
    M. F. Herbst, and D. L. Poole

             Previous Authors, Complete List of Code Contributors,
                       and Citations for Specific Modules
    https://github.com/psi4/psi4/blob/master/codemeta.json
    https://github.com/psi4/psi4/graphs/contributors
    http://psicode.org/psi4manual/master/introduction.html#citing-psifour

    -----------------------------------------------------------------------


    Psi4 started on: Friday, 13 October 2023 01:01PM

    Process ID: 23918
    Host:       beboplogin2
    PSIDATADIR: /lcrc/project/PACC/conda/elliott/miniconda3/envs/jitterbug/share/psi4
    Memory:     3.8 GiB
    Threads:    12
    
  ==> Input QCSchema <==

--------------------------------------------------------------------------
{'driver': 'energy',
 'extras': {'psiapi': True, 'wfn_qcvars_only': True},
 'id': None,
 'keywords': {'CCTRANSORT__WFN': 'CCSD_T',
              'E_CONVERGENCE': 1e-08,
              'PARENT_SYMMETRY': 'C1',
              'SCF__D_CONVERGENCE': 1e-10,
              'SCF__E_CONVERGENCE': 1e-10,
              'SCF__INTS_TOLERANCE': 1e-12,
              'function_kwargs': {'write_orbitals': False}},
 'model': {'basis': 'cc-pvdz', 'method': 'ccsd(t)'},
 'molecule': {'atom_labels': ['', '', ''],
              'atomic_numbers': [8, 1, 1],
              'extras': {},
              'fix_com': True,
              'fix_orientation': True,
              'fix_symmetry': 'c1',
              'fragment_charges': [0.0],
              'fragment_multiplicities': [1],
              'fragments': [[0, 1, 2]],
              'geometry': [-0.0003083929239315727, -0.1286167603382389, 0.0, 1.4200779504063332, 1.023014982517659, 0.0,
                           -1.4151835309090917, 1.0182263386111297, 0.0],
              'mass_numbers': [16, 1, 1],
              'masses': [15.99491461957, 1.00782503223, 1.00782503223],
              'molecular_charge': 0.0,
              'molecular_multiplicity': 1,
              'name': 'H2O',
              'provenance': {'creator': 'QCElemental',
                             'routine': 'qcelemental.molparse.from_string',
                             'version': '0.26.0'},
              'real': [True, True, True],
              'schema_name': 'qcschema_molecule',
              'schema_version': 2,
              'symbols': ['O', 'H', 'H'],
              'validated': True},
 'protocols': {'stdout': True},
 'provenance': {'creator': 'QCElemental', 'routine': 'qcelemental.models.results', 'version': '0.26.0'},
 'schema_name': 'qcschema_input',
 'schema_version': 1}
--------------------------------------------------------------------------

Scratch directory: /tmp/
   => Libint2 <=

    Primary   basis highest AM E, G, H:  5, 4, 3
    Auxiliary basis highest AM E, G, H:  6, 5, 4
    Onebody   basis highest AM E, G, H:  6, 5, 4
    Solid Harmonics ordering:            gaussian

*** tstart() called on beboplogin2
*** at Fri Oct 13 13:34:58 2023

   => Loading Basis Set <=

    Name: CC-PVDZ
    Role: ORBITAL
    Keyword: BASIS
    atoms 1   entry O          line   198 file /lcrc/project/PACC/conda/elliott/miniconda3/envs/jitterbug/share/psi4/basis/cc-pvdz.gbs 
    atoms 2-3 entry H          line    22 file /lcrc/project/PACC/conda/elliott/miniconda3/envs/jitterbug/share/psi4/basis/cc-pvdz.gbs 


         ---------------------------------------------------------
                                   SCF
               by Justin Turney, Rob Parrish, Andy Simmonett
                          and Daniel G. A. Smith
                              RHF Reference
                       12 Threads,   3906 MiB Core
         ---------------------------------------------------------

  ==> Geometry <==

    Molecular point group: c1
    Full point group: Cs

    Geometry (in Bohr), charge = 0, multiplicity = 1:

       Center              X                  Y                   Z               Mass       
    ------------   -----------------  -----------------  -----------------  -----------------
         O           -0.000308392924    -0.128616760338     0.000000000000    15.994914619570
         H            1.420077950406     1.023014982518     0.000000000000     1.007825032230
         H           -1.415183530909     1.018226338611     0.000000000000     1.007825032230

  Running in c1 symmetry.

  Rotational constants: A =     25.46361  B =     14.86077  C =      9.38412 [cm^-1]
  Rotational constants: A = 763379.69832  B = 445514.81146  C = 281328.89977 [MHz]
  Nuclear repulsion =    9.120124086266019

  Charge       = 0
  Multiplicity = 1
  Electrons    = 10
  Nalpha       = 5
  Nbeta        = 5

  ==> Algorithm <==

  SCF Algorithm Type is PK.
  DIIS enabled.
  MOM disabled.
  Fractional occupation disabled.
  Guess Type is SAD.
  Energy threshold   = 1.00e-10
  Density threshold  = 1.00e-10
  Integral threshold = 1.00e-12

  ==> Primary Basis <==

  Basis Set: CC-PVDZ
    Blend: CC-PVDZ
    Number of shells: 12
    Number of basis functions: 24
    Number of Cartesian functions: 25
    Spherical Harmonics?: true
    Max angular momentum: 2

  ==> Integral Setup <==

  Using in-core PK algorithm.
   Calculation information:
      Number of atoms:                   3
      Number of AO shells:              12
      Number of primitives:             32
      Number of atomic orbitals:        25
      Number of basis functions:        24

      Integral cutoff                 1.00e-12
      Number of threads:                12

  Performing in-core PK
  Using 90300 doubles for integral storage.
  We computed 7838 shell quartets total.
  Whereas there are 3081 unique shell quartets.
   154.40 percent of shell quartets recomputed by reordering.

  ==> DiskJK: Disk-Based J/K Matrices <==

    J tasked:                  Yes
    K tasked:                  Yes
    wK tasked:                  No
    Memory [MiB]:             2929
    Schwarz Cutoff:          1E-12

    OpenMP threads:             12

  Minimum eigenvalue in the overlap matrix is 3.4428474906E-02.
  Reciprocal condition number of the overlap matrix is 9.2737247402E-03.
    Using symmetric orthogonalization.

  ==> Pre-Iterations <==

  SCF Guess: Superposition of Atomic Densities via on-the-fly atomic UHF (no occupation information).

   -------------------------
    Irrep   Nso     Nmo    
   -------------------------
     A         24      24 
   -------------------------
    Total      24      24
   -------------------------

  ==> Iterations <==

                        Total Energy        Delta E     RMS |[F,P]|

   @RHF iter SAD:   -75.50281134844538   -7.55028e+01   0.00000e+00 
   @RHF iter   1:   -75.95249474630538   -4.49683e-01   1.74243e-02 ADIIS/DIIS
   @RHF iter   2:   -76.00611772024253   -5.36230e-02   1.00827e-02 ADIIS/DIIS
   @RHF iter   3:   -76.02566672381596   -1.95490e-02   1.07731e-03 ADIIS/DIIS
   @RHF iter   4:   -76.02613030168152   -4.63578e-04   2.15943e-04 ADIIS/DIIS
   @RHF iter   5:   -76.02615083050907   -2.05288e-05   3.90975e-05 DIIS
   @RHF iter   6:   -76.02615176074207   -9.30233e-07   5.88186e-06 DIIS
   @RHF iter   7:   -76.02615178309385   -2.23518e-08   7.18265e-07 DIIS
   @RHF iter   8:   -76.02615178342414   -3.30289e-10   1.67734e-07 DIIS
   @RHF iter   9:   -76.02615178344719   -2.30500e-11   3.45678e-08 DIIS
   @RHF iter  10:   -76.02615178344821   -1.02318e-12   2.90318e-09 DIIS
   @RHF iter  11:   -76.02615178344821    0.00000e+00   5.07603e-10 DIIS
   @RHF iter  12:   -76.02615178344817    4.26326e-14   4.26128e-11 DIIS
  Energy and wave function converged.


  ==> Post-Iterations <==

    Orbital Energies [Eh]
    ---------------------

    Doubly Occupied:                                                      

       1A    -20.553325     2A     -1.334482     3A     -0.689883  
       4A     -0.570284     5A     -0.493490  

    Virtual:                                                              

       6A      0.183597     7A      0.255268     8A      0.774782  
       9A      0.857805    10A      1.166401    11A      1.199559  
      12A      1.256570    13A      1.421722    14A      1.482714  
      15A      1.658653    16A      1.863679    17A      1.940738  
      18A      2.426422    19A      2.474653    20A      3.291125  
      21A      3.321081    22A      3.507371    23A      3.839325  
      24A      4.151857  

    Final Occupation by Irrep:
              A 
    DOCC [     5 ]
    NA   [     5 ]
    NB   [     5 ]

  @RHF Final Energy:   -76.02615178344817

   => Energetics <=

    Nuclear Repulsion Energy =              9.1201240862660189
    One-Electron Energy =                -123.0096253956775740
    Two-Electron Energy =                  37.8633495259633861
    Total Energy =                        -76.0261517834481708

Computation Completed


Properties will be evaluated at   0.000000,   0.000000,   0.000000 [a0]

Properties computed using the SCF density matrix


 Multipole Moments:

 ------------------------------------------------------------------------------------
     Multipole            Electronic (a.u.)      Nuclear  (a.u.)        Total (a.u.)
 ------------------------------------------------------------------------------------

 L = 1.  Multiply by 2.5417464519 to convert [e a0] to [Debye]
 Dipole X            :         -0.0014977            0.0024273            0.0009296
 Dipole Y            :         -0.1848700            1.0123072            0.8274372
 Dipole Z            :          0.0000000            0.0000000            0.0000000
 Magnitude           :                                                    0.8274377

 ------------------------------------------------------------------------------------

*** tstop() called on beboplogin2 at Fri Oct 13 13:34:58 2023
Module time:
	user time   =       5.01 seconds =       0.08 minutes
	system time =       0.36 seconds =       0.01 minutes
	total time  =          0 seconds =       0.00 minutes
Total time:
	user time   =    5938.14 seconds =      98.97 minutes
	system time =     456.84 seconds =       7.61 minutes
	total time  =       2020 seconds =      33.67 minutes
 MINTS: Wrapper to libmints.
   by Justin Turney

   Calculation information:
      Number of threads:                12
      Number of atoms:                   3
      Number of AO shells:              12
      Number of SO shells:              12
      Number of primitives:             32
      Number of atomic orbitals:        25
      Number of basis functions:        24

      Number of irreps:                  1
      Integral cutoff                 1.00e-12
      Number of functions per irrep: [  24 ]

 OEINTS: Overlap, kinetic, potential, dipole, and quadrupole integrals
         stored in file 35.

      Computing two-electron integrals...done
      Computed 22139 non-zero two-electron integrals.
        Stored in file 33.


*** tstart() called on beboplogin2
*** at Fri Oct 13 13:34:58 2023


	Wfn Parameters:
	--------------------
	Wavefunction         = CCSD_T
	Number of irreps     = 1
	Number of MOs        = 24
	Number of active MOs = 24
	AO-Basis             = NONE
	Semicanonical        = false
	Reference            = RHF
	Print Level          = 1

	IRREP	# MOs	# FZDC	# DOCC	# SOCC	# VIRT	# FZVR
	-----	-----	------	------	------	------	------
	 A	   24	    0	    5	    0	    19	    0
	Transforming integrals...
	IWL integrals will be deleted.
	(OO|OO)...
	Presorting SO-basis two-electron integrals.
	Sorting File: SO Ints (nn|nn) nbuckets = 1
	Constructing frozen core operators
	Starting first half-transformation.
	Sorting half-transformed integrals.
	First half integral transformation complete.
	Starting second half-transformation.
	Two-electron integral transformation complete.
	(OO|OV)...
	Starting second half-transformation.
	Two-electron integral transformation complete.
	(OO|VV)...
	Starting second half-transformation.
	Two-electron integral transformation complete.
	(OV|OO)...
	Starting first half-transformation.
	Sorting half-transformed integrals.
	First half integral transformation complete.
	Starting second half-transformation.
	Two-electron integral transformation complete.
	(OV|OV)...
	Starting second half-transformation.
	Two-electron integral transformation complete.
	(OV|VV)...
	Starting second half-transformation.
	Two-electron integral transformation complete.
	(VV|OO)...
	Starting first half-transformation.
	Sorting half-transformed integrals.
	First half integral transformation complete.
	Starting second half-transformation.
	Two-electron integral transformation complete.
	(VV|OV)...
	Starting second half-transformation.
	Two-electron integral transformation complete.
	(VV|VV)...
	Starting second half-transformation.
	Two-electron integral transformation complete.
	Frozen core energy     =      0.00000000000000

	Size of irrep 0 of <ab|cd> integrals:      0.130 (MW) /      1.043 (MB)
	Total:                                     0.130 (MW) /      1.043 (MB)

	Size of irrep 0 of <ia|bc> integrals:      0.034 (MW) /      0.274 (MB)
	Total:                                     0.034 (MW) /      0.274 (MB)

	Size of irrep 0 of tijab amplitudes:       0.009 (MW) /      0.072 (MB)
	Total:                                     0.009 (MW) /      0.072 (MB)

	Nuclear Rep. energy          =      9.12012408626602
	SCF energy                   =    -76.02615178344817
	One-electron energy          =   -123.00962539589730
	Two-electron energy          =     37.86334952618316
	Reference energy             =    -76.02615178344813

*** tstop() called on beboplogin2 at Fri Oct 13 13:34:59 2023
Module time:
	user time   =       1.59 seconds =       0.03 minutes
	system time =       0.22 seconds =       0.00 minutes
	total time  =          1 seconds =       0.02 minutes
Total time:
	user time   =    5940.81 seconds =      99.01 minutes
	system time =     457.19 seconds =       7.62 minutes
	total time  =       2021 seconds =      33.68 minutes
            **************************
            *                        *
            *        CCENERGY        *
            *                        *
            **************************

    Nuclear Rep. energy (wfn)     =    9.120124086266019
    SCF energy          (wfn)     =  -76.026151783448171
    Reference energy    (file100) =  -76.026151783448128

    Input parameters:
    -----------------
    Wave function   =     CCSD_T
    Reference wfn   =     RHF
    Brueckner       =     No
    Memory (Mbytes) =     4096.0
    Maxiter         =     50
    R_Convergence   =     1.0e-07
    E_Convergence   =     1.0e-08
    Restart         =     Yes
    DIIS            =     Yes
    AO Basis        =     NONE
    ABCD            =     NEW
    Cache Level     =     2
    Cache Type      =     LOW
    Print Level     =     1
    Num. of threads =     12
    # Amps to Print =     10
    Print MP2 Amps? =     No
    Analyze T2 Amps =     No
    Print Pair Ener =     No
    Local CC        =     No
    SCS-MP2         =     False
    SCSN-MP2        =     False
    SCS-CCSD        =     False

MP2 correlation energy -0.2048265278121758
                Solving CC Amplitude Equations
                ------------------------------
  Iter             Energy              RMS        T1Diag      D1Diag    New D1Diag    D2Diag
  ----     ---------------------    ---------   ----------  ----------  ----------   --------
     0        -0.204826527812176    0.000e+00    0.000000    0.000000    0.000000    0.110560
     1        -0.209641968276813    2.695e-02    0.004126    0.008810    0.008810    0.117508
     2        -0.213668083575728    9.587e-03    0.004869    0.010150    0.010150    0.123008
     3        -0.214101988933385    2.533e-03    0.005321    0.010987    0.010987    0.124303
     4        -0.214112979004230    5.769e-04    0.005362    0.011171    0.011171    0.124512
     5        -0.214125037754912    1.715e-04    0.005385    0.011282    0.011282    0.124550
     6        -0.214123126625432    5.652e-05    0.005394    0.011327    0.011327    0.124543
     7        -0.214122894183641    1.525e-05    0.005397    0.011342    0.011342    0.124541
     8        -0.214122768685412    2.678e-06    0.005397    0.011343    0.011343    0.124541
     9        -0.214122718433881    6.621e-07    0.005397    0.011344    0.011344    0.124541
    10        -0.214122733970052    1.348e-07    0.005397    0.011344    0.011344    0.124541
    11        -0.214122732527015    2.873e-08    0.005397    0.011344    0.011344    0.124541
    12        -0.214122732832183    4.793e-09    0.005397    0.011344    0.011344    0.124541

    Iterations converged.


    Largest TIA Amplitudes:
              3   0         0.0076864600
              2  12         0.0074349179
              2   1         0.0060403157
              3  13         0.0051475858
              2   6        -0.0048871187
              1   4         0.0043038372
              1   0        -0.0036012639
              4   9        -0.0033882386
              4   5        -0.0032206098
              3   3        -0.0031165873

    Largest TIjAb Amplitudes:
      4   4   5   5        -0.0514067836
      2   2   2   2        -0.0363823214
      3   3   4   4        -0.0343818323
      2   2   1   1        -0.0306496623
      3   4   4   5         0.0281018795
      4   3   5   4         0.0281018795
      2   2   3   3        -0.0275098231
      3   3   2   2        -0.0259114893
      2   4   6   5         0.0229664617
      4   2   5   6         0.0229664617

    SCF energy       (wfn)                    =  -76.026151783448171
    Reference energy (file100)                =  -76.026151783448128

    Opposite-spin MP2 correlation energy      =   -0.153133696814284
    Same-spin MP2 correlation energy          =   -0.051692830997892
    Singles MP2 correlation energy            =   -0.000000000000000
    MP2 correlation energy                    =   -0.204826527812176
      * MP2 total energy                      =  -76.230978311260301

    Opposite-spin CCSD correlation energy     =   -0.168039082278689
    Same-spin CCSD correlation energy         =   -0.046083650553495
    Singles CCSD correlation energy           =    0.000000000000000
    CCSD correlation energy                   =   -0.214122732832183
      * CCSD total energy                     =  -76.240274516280309

            **************************
            *                        *
            *        CCTRIPLES       *
            *                        *
            **************************


    Wave function   =    CCSD_T
    Reference wfn   =      RHF

    Nuclear Rep. energy (wfn)                =    9.120124086266019
    SCF energy          (wfn)                =  -76.026151783448171
    Reference energy    (file100)            =  -76.026151783448128
    CCSD energy         (file100)            =   -0.214122732832183
    Total CCSD energy   (file100)            =  -76.240274516280309

    Number of ijk index combinations:               35
    Memory available in words               :       512000000
    Approx. words needed per explicit thread:           27436
    Number of threads for explicit ijk threading:   12

    MKL num_threads set to 1 for explicit threading.

    (T) energy                                =   -0.003123138603118
      * CCSD(T) total energy                  =  -76.243397654883424


    Psi4 stopped on: Friday, 13 October 2023 01:34PM
    Psi4 wall time for execution: 0:00:01.49


    -----------------------------------------------------------------------
          Psi4: An Open-Source Ab Initio Electronic Structure Package
                               Psi4 1.8.1 release

                         Git: Rev {} zzzzzzz 


    D. G. A. Smith, L. A. Burns, A. C. Simmonett, R. M. Parrish,
    M. C. Schieber, R. Galvelis, P. Kraus, H. Kruse, R. Di Remigio,
    A. Alenaizan, A. M. James, S. Lehtola, J. P. Misiewicz, M. Scheurer,
    R. A. Shaw, J. B. Schriber, Y. Xie, Z. L. Glick, D. A. Sirianni,
    J. S. O'Brien, J. M. Waldrop, A. Kumar, E. G. Hohenstein,
    B. P. Pritchard, B. R. Brooks, H. F. Schaefer III, A. Yu. Sokolov,
    K. Patkowski, A. E. DePrince III, U. Bozkaya, R. A. King,
    F. A. Evangelista, J. M. Turney, T. D. Crawford, C. D. Sherrill,
    J. Chem. Phys. 152(18) 184108 (2020). https://doi.org/10.1063/5.0006002

                            Additional Code Authors
    E. T. Seidl, C. L. Janssen, E. F. Valeev, M. L. Leininger,
    J. F. Gonthier, R. M. Richard, H. R. McAlexander, M. Saitow, X. Wang,
    P. Verma, M. H. Lechner, A. Jiang, S. Behnle, A. G. Heide,
    M. F. Herbst, and D. L. Poole

             Previous Authors, Complete List of Code Contributors,
                       and Citations for Specific Modules
    https://github.com/psi4/psi4/blob/master/codemeta.json
    https://github.com/psi4/psi4/graphs/contributors
    http://psicode.org/psi4manual/master/introduction.html#citing-psifour

    -----------------------------------------------------------------------


    Psi4 started on: Friday, 13 October 2023 01:01PM

    Process ID: 23918
    Host:       beboplogin2
    PSIDATADIR: /lcrc/project/PACC/conda/elliott/miniconda3/envs/jitterbug/share/psi4
    Memory:     3.8 GiB
    Threads:    12
    
  ==> Input QCSchema <==

--------------------------------------------------------------------------
{'driver': 'energy',
 'extras': {'psiapi': True, 'wfn_qcvars_only': True},
 'id': None,
 'keywords': {'CCTRANSORT__WFN': 'CCSD_T',
              'E_CONVERGENCE': 1e-08,
              'PARENT_SYMMETRY': 'C1',
              'SCF__D_CONVERGENCE': 1e-10,
              'SCF__E_CONVERGENCE': 1e-10,
              'SCF__INTS_TOLERANCE': 1e-12,
              'function_kwargs': {'write_orbitals': False}},
 'model': {'basis': 'cc-pvdz', 'method': 'ccsd(t)'},
 'molecule': {'atom_labels': ['', '', ''],
              'atomic_numbers': [8, 1, 1],
              'extras': {},
              'fix_com': True,
              'fix_orientation': True,
              'fix_symmetry': 'c1',
              'fragment_charges': [0.0],
              'fragment_multiplicities': [1],
              'fragments': [[0, 1, 2]],
              'geometry': [0.00035630480086855176, -0.12861683259650689, 0.0, 1.4148041059262946, 1.0187395568743174,
                           0.0, -1.4204589216792192, 1.02250291104562, 0.0],
              'mass_numbers': [16, 1, 1],
              'masses': [15.99491461957, 1.00782503223, 1.00782503223],
              'molecular_charge': 0.0,
              'molecular_multiplicity': 1,
              'name': 'H2O',
              'provenance': {'creator': 'QCElemental',
                             'routine': 'qcelemental.molparse.from_string',
                             'version': '0.26.0'},
              'real': [True, True, True],
              'schema_name': 'qcschema_molecule',
              'schema_version': 2,
              'symbols': ['O', 'H', 'H'],
              'validated': True},
 'protocols': {'stdout': True},
 'provenance': {'creator': 'QCElemental', 'routine': 'qcelemental.models.results', 'version': '0.26.0'},
 'schema_name': 'qcschema_input',
 'schema_version': 1}
--------------------------------------------------------------------------

Scratch directory: /tmp/
   => Libint2 <=

    Primary   basis highest AM E, G, H:  5, 4, 3
    Auxiliary basis highest AM E, G, H:  6, 5, 4
    Onebody   basis highest AM E, G, H:  6, 5, 4
    Solid Harmonics ordering:            gaussian

*** tstart() called on beboplogin2
*** at Fri Oct 13 13:34:59 2023

   => Loading Basis Set <=

    Name: CC-PVDZ
    Role: ORBITAL
    Keyword: BASIS
    atoms 1   entry O          line   198 file /lcrc/project/PACC/conda/elliott/miniconda3/envs/jitterbug/share/psi4/basis/cc-pvdz.gbs 
    atoms 2-3 entry H          line    22 file /lcrc/project/PACC/conda/elliott/miniconda3/envs/jitterbug/share/psi4/basis/cc-pvdz.gbs 


         ---------------------------------------------------------
                                   SCF
               by Justin Turney, Rob Parrish, Andy Simmonett
                          and Daniel G. A. Smith
                              RHF Reference
                       12 Threads,   3906 MiB Core
         ---------------------------------------------------------

  ==> Geometry <==

    Molecular point group: c1
    Full point group: Cs

    Geometry (in Bohr), charge = 0, multiplicity = 1:

       Center              X                  Y                   Z               Mass       
    ------------   -----------------  -----------------  -----------------  -----------------
         O            0.000356304801    -0.128616832597     0.000000000000    15.994914619570
         H            1.414804105926     1.018739556874     0.000000000000     1.007825032230
         H           -1.420458921679     1.022502911046     0.000000000000     1.007825032230

  Running in c1 symmetry.

  Rotational constants: A =     25.46353  B =     14.86077  C =      9.38411 [cm^-1]
  Rotational constants: A = 763377.53450  B = 445514.75572  C = 281328.58366 [MHz]
  Nuclear repulsion =    9.120119066671057

  Charge       = 0
  Multiplicity = 1
  Electrons    = 10
  Nalpha       = 5
  Nbeta        = 5

  ==> Algorithm <==

  SCF Algorithm Type is PK.
  DIIS enabled.
  MOM disabled.
  Fractional occupation disabled.
  Guess Type is SAD.
  Energy threshold   = 1.00e-10
  Density threshold  = 1.00e-10
  Integral threshold = 1.00e-12

  ==> Primary Basis <==

  Basis Set: CC-PVDZ
    Blend: CC-PVDZ
    Number of shells: 12
    Number of basis functions: 24
    Number of Cartesian functions: 25
    Spherical Harmonics?: true
    Max angular momentum: 2

  ==> Integral Setup <==

  Using in-core PK algorithm.
   Calculation information:
      Number of atoms:                   3
      Number of AO shells:              12
      Number of primitives:             32
      Number of atomic orbitals:        25
      Number of basis functions:        24

      Integral cutoff                 1.00e-12
      Number of threads:                12

  Performing in-core PK
  Using 90300 doubles for integral storage.
  We computed 7838 shell quartets total.
  Whereas there are 3081 unique shell quartets.
   154.40 percent of shell quartets recomputed by reordering.

  ==> DiskJK: Disk-Based J/K Matrices <==

    J tasked:                  Yes
    K tasked:                  Yes
    wK tasked:                  No
    Memory [MiB]:             2929
    Schwarz Cutoff:          1E-12

    OpenMP threads:             12

  Minimum eigenvalue in the overlap matrix is 3.4428499871E-02.
  Reciprocal condition number of the overlap matrix is 9.2737327589E-03.
    Using symmetric orthogonalization.

  ==> Pre-Iterations <==

  SCF Guess: Superposition of Atomic Densities via on-the-fly atomic UHF (no occupation information).

   -------------------------
    Irrep   Nso     Nmo    
   -------------------------
     A         24      24 
   -------------------------
    Total      24      24
   -------------------------

  ==> Iterations <==

                        Total Energy        Delta E     RMS |[F,P]|

   @RHF iter SAD:   -75.50281063255791   -7.55028e+01   0.00000e+00 
   @RHF iter   1:   -75.95249459512672   -4.49684e-01   1.74243e-02 ADIIS/DIIS
   @RHF iter   2:   -76.00611759008454   -5.36230e-02   1.00827e-02 ADIIS/DIIS
   @RHF iter   3:   -76.02566663113654   -1.95490e-02   1.07731e-03 ADIIS/DIIS
   @RHF iter   4:   -76.02613021013114   -4.63579e-04   2.15943e-04 ADIIS/DIIS
   @RHF iter   5:   -76.02615073907651   -2.05289e-05   3.90976e-05 DIIS
   @RHF iter   6:   -76.02615166931416   -9.30238e-07   5.88187e-06 DIIS
   @RHF iter   7:   -76.02615169166587   -2.23517e-08   7.18265e-07 DIIS
   @RHF iter   8:   -76.02615169199646   -3.30587e-10   1.67734e-07 DIIS
   @RHF iter   9:   -76.02615169201927   -2.28084e-11   3.45680e-08 DIIS
   @RHF iter  10:   -76.02615169202028   -1.00897e-12   2.90326e-09 DIIS
   @RHF iter  11:   -76.02615169202031   -2.84217e-14   5.07652e-10 DIIS
   @RHF iter  12:   -76.02615169202022    8.52651e-14   4.26794e-11 DIIS
  Energy and wave function converged.


  ==> Post-Iterations <==

    Orbital Energies [Eh]
    ---------------------

    Doubly Occupied:                                                      

       1A    -20.553325     2A     -1.334481     3A     -0.689883  
       4A     -0.570284     5A     -0.493490  

    Virtual:                                                              

       6A      0.183597     7A      0.255268     8A      0.774781  
       9A      0.857805    10A      1.166402    11A      1.199559  
      12A      1.256570    13A      1.421721    14A      1.482714  
      15A      1.658652    16A      1.863679    17A      1.940738  
      18A      2.426418    19A      2.474654    20A      3.291124  
      21A      3.321081    22A      3.507371    23A      3.839324  
      24A      4.151857  

    Final Occupation by Irrep:
              A 
    DOCC [     5 ]
    NA   [     5 ]
    NB   [     5 ]

  @RHF Final Energy:   -76.02615169202022

   => Energetics <=

    Nuclear Repulsion Energy =              9.1201190666710570
    One-Electron Energy =                -123.0096160820328066
    Two-Electron Energy =                  37.8633453233415267
    Total Energy =                        -76.0261516920202212

Computation Completed


Properties will be evaluated at   0.000000,   0.000000,   0.000000 [a0]

Properties computed using the SCF density matrix


 Multipole Moments:

 ------------------------------------------------------------------------------------
     Multipole            Electronic (a.u.)      Nuclear  (a.u.)        Total (a.u.)
 ------------------------------------------------------------------------------------

 L = 1.  Multiply by 2.5417464519 to convert [e a0] to [Debye]
 Dipole X            :          0.0015694           -0.0028044           -0.0012350
 Dipole Y            :         -0.1848703            1.0123078            0.8274375
 Dipole Z            :          0.0000000            0.0000000            0.0000000
 Magnitude           :                                                    0.8274384

 ------------------------------------------------------------------------------------

*** tstop() called on beboplogin2 at Fri Oct 13 13:35:00 2023
Module time:
	user time   =       4.88 seconds =       0.08 minutes
	system time =       0.38 seconds =       0.01 minutes
	total time  =          1 seconds =       0.02 minutes
Total time:
	user time   =    5954.01 seconds =      99.23 minutes
	system time =     458.55 seconds =       7.64 minutes
	total time  =       2022 seconds =      33.70 minutes
 MINTS: Wrapper to libmints.
   by Justin Turney

   Calculation information:
      Number of threads:                12
      Number of atoms:                   3
      Number of AO shells:              12
      Number of SO shells:              12
      Number of primitives:             32
      Number of atomic orbitals:        25
      Number of basis functions:        24

      Number of irreps:                  1
      Integral cutoff                 1.00e-12
      Number of functions per irrep: [  24 ]

 OEINTS: Overlap, kinetic, potential, dipole, and quadrupole integrals
         stored in file 35.

      Computing two-electron integrals...done
      Computed 22139 non-zero two-electron integrals.
        Stored in file 33.


*** tstart() called on beboplogin2
*** at Fri Oct 13 13:35:00 2023


	Wfn Parameters:
	--------------------
	Wavefunction         = CCSD_T
	Number of irreps     = 1
	Number of MOs        = 24
	Number of active MOs = 24
	AO-Basis             = NONE
	Semicanonical        = false
	Reference            = RHF
	Print Level          = 1

	IRREP	# MOs	# FZDC	# DOCC	# SOCC	# VIRT	# FZVR
	-----	-----	------	------	------	------	------
	 A	   24	    0	    5	    0	    19	    0
	Transforming integrals...
	IWL integrals will be deleted.
	(OO|OO)...
	Presorting SO-basis two-electron integrals.
	Sorting File: SO Ints (nn|nn) nbuckets = 1
	Constructing frozen core operators
	Starting first half-transformation.
	Sorting half-transformed integrals.
	First half integral transformation complete.
	Starting second half-transformation.
	Two-electron integral transformation complete.
	(OO|OV)...
	Starting second half-transformation.
	Two-electron integral transformation complete.
	(OO|VV)...
	Starting second half-transformation.
	Two-electron integral transformation complete.
	(OV|OO)...
	Starting first half-transformation.
	Sorting half-transformed integrals.
	First half integral transformation complete.
	Starting second half-transformation.
	Two-electron integral transformation complete.
	(OV|OV)...
	Starting second half-transformation.
	Two-electron integral transformation complete.
	(OV|VV)...
	Starting second half-transformation.
	Two-electron integral transformation complete.
	(VV|OO)...
	Starting first half-transformation.
	Sorting half-transformed integrals.
	First half integral transformation complete.
	Starting second half-transformation.
	Two-electron integral transformation complete.
	(VV|OV)...
	Starting second half-transformation.
	Two-electron integral transformation complete.
	(VV|VV)...
	Starting second half-transformation.
	Two-electron integral transformation complete.
	Frozen core energy     =      0.00000000000000

	Size of irrep 0 of <ab|cd> integrals:      0.130 (MW) /      1.043 (MB)
	Total:                                     0.130 (MW) /      1.043 (MB)

	Size of irrep 0 of <ia|bc> integrals:      0.034 (MW) /      0.274 (MB)
	Total:                                     0.034 (MW) /      0.274 (MB)

	Size of irrep 0 of tijab amplitudes:       0.009 (MW) /      0.072 (MB)
	Total:                                     0.009 (MW) /      0.072 (MB)

	Nuclear Rep. energy          =      9.12011906667106
	SCF energy                   =    -76.02615169202022
	One-electron energy          =   -123.00961608225506
	Two-electron energy          =     37.86334532356373
	Reference energy             =    -76.02615169202029

*** tstop() called on beboplogin2 at Fri Oct 13 13:35:00 2023
Module time:
	user time   =       1.36 seconds =       0.02 minutes
	system time =       0.17 seconds =       0.00 minutes
	total time  =          0 seconds =       0.00 minutes
Total time:
	user time   =    5956.46 seconds =      99.27 minutes
	system time =     458.83 seconds =       7.65 minutes
	total time  =       2022 seconds =      33.70 minutes
            **************************
            *                        *
            *        CCENERGY        *
            *                        *
            **************************

    Nuclear Rep. energy (wfn)     =    9.120119066671057
    SCF energy          (wfn)     =  -76.026151692020221
    Reference energy    (file100) =  -76.026151692020292

    Input parameters:
    -----------------
    Wave function   =     CCSD_T
    Reference wfn   =     RHF
    Brueckner       =     No
    Memory (Mbytes) =     4096.0
    Maxiter         =     50
    R_Convergence   =     1.0e-07
    E_Convergence   =     1.0e-08
    Restart         =     Yes
    DIIS            =     Yes
    AO Basis        =     NONE
    ABCD            =     NEW
    Cache Level     =     2
    Cache Type      =     LOW
    Print Level     =     1
    Num. of threads =     12
    # Amps to Print =     10
    Print MP2 Amps? =     No
    Analyze T2 Amps =     No
    Print Pair Ener =     No
    Local CC        =     No
    SCS-MP2         =     False
    SCSN-MP2        =     False
    SCS-CCSD        =     False

MP2 correlation energy -0.2048265770868718
                Solving CC Amplitude Equations
                ------------------------------
  Iter             Energy              RMS        T1Diag      D1Diag    New D1Diag    D2Diag
  ----     ---------------------    ---------   ----------  ----------  ----------   --------
     0        -0.204826577086872    0.000e+00    0.000000    0.000000    0.000000    0.110560
     1        -0.209642009598651    2.695e-02    0.004126    0.008810    0.008810    0.117508
     2        -0.213668130774474    9.587e-03    0.004869    0.010150    0.010150    0.123008
     3        -0.214102037716575    2.533e-03    0.005321    0.010987    0.010987    0.124303
     4        -0.214113027797040    5.769e-04    0.005362    0.011171    0.011171    0.124512
     5        -0.214125086588852    1.715e-04    0.005385    0.011282    0.011282    0.124550
     6        -0.214123175448948    5.652e-05    0.005394    0.011327    0.011327    0.124543
     7        -0.214122943006438    1.525e-05    0.005397    0.011342    0.011342    0.124541
     8        -0.214122817507611    2.678e-06    0.005397    0.011343    0.011343    0.124541
     9        -0.214122767255945    6.621e-07    0.005397    0.011344    0.011344    0.124541
    10        -0.214122782792179    1.348e-07    0.005397    0.011344    0.011344    0.124541
    11        -0.214122781349132    2.873e-08    0.005397    0.011344    0.011344    0.124541
    12        -0.214122781654303    4.793e-09    0.005397    0.011344    0.011344    0.124541

    Iterations converged.


    Largest TIA Amplitudes:
              3   0         0.0076864839
              2  12         0.0074347480
              2   1         0.0060403182
              3  13         0.0051474432
              2   6        -0.0048871388
              1   4         0.0043038403
              1   0        -0.0036012473
              4   9        -0.0033882434
              4   5        -0.0032206195
              3   3        -0.0031165903

    Largest TIjAb Amplitudes:
      4   4   5   5        -0.0514067816
      2   2   2   2        -0.0363822963
      3   3   4   4        -0.0343817816
      2   2   1   1        -0.0306497295
      3   4   4   5         0.0281018525
      4   3   5   4         0.0281018525
      2   2   3   3        -0.0275098298
      3   3   2   2        -0.0259115170
      2   4   6   5         0.0229664541
      4   2   5   6         0.0229664541

    SCF energy       (wfn)                    =  -76.026151692020221
    Reference energy (file100)                =  -76.026151692020292

    Opposite-spin MP2 correlation energy      =   -0.153133737255581
    Same-spin MP2 correlation energy          =   -0.051692839831291
    Singles MP2 correlation energy            =   -0.000000000000000
    MP2 correlation energy                    =   -0.204826577086872
      * MP2 total energy                      =  -76.230978269107169

    Opposite-spin CCSD correlation energy     =   -0.168039129818177
    Same-spin CCSD correlation energy         =   -0.046083651836126
    Singles CCSD correlation energy           =    0.000000000000000
    CCSD correlation energy                   =   -0.214122781654303
      * CCSD total energy                     =  -76.240274473674589

            **************************
            *                        *
            *        CCTRIPLES       *
            *                        *
            **************************


    Wave function   =    CCSD_T
    Reference wfn   =      RHF

    Nuclear Rep. energy (wfn)                =    9.120119066671057
    SCF energy          (wfn)                =  -76.026151692020221
    Reference energy    (file100)            =  -76.026151692020292
    CCSD energy         (file100)            =   -0.214122781654303
    Total CCSD energy   (file100)            =  -76.240274473674589

    Number of ijk index combinations:               35
    Memory available in words               :       512000000
    Approx. words needed per explicit thread:           27436
    Number of threads for explicit ijk threading:   12

    MKL num_threads set to 1 for explicit threading.

    (T) energy                                =   -0.003123142350063
      * CCSD(T) total energy                  =  -76.243397616024652


    Psi4 stopped on: Friday, 13 October 2023 01:35PM
    Psi4 wall time for execution: 0:00:01.51


    -----------------------------------------------------------------------
          Psi4: An Open-Source Ab Initio Electronic Structure Package
                               Psi4 1.8.1 release

                         Git: Rev {} zzzzzzz 


    D. G. A. Smith, L. A. Burns, A. C. Simmonett, R. M. Parrish,
    M. C. Schieber, R. Galvelis, P. Kraus, H. Kruse, R. Di Remigio,
    A. Alenaizan, A. M. James, S. Lehtola, J. P. Misiewicz, M. Scheurer,
    R. A. Shaw, J. B. Schriber, Y. Xie, Z. L. Glick, D. A. Sirianni,
    J. S. O'Brien, J. M. Waldrop, A. Kumar, E. G. Hohenstein,
    B. P. Pritchard, B. R. Brooks, H. F. Schaefer III, A. Yu. Sokolov,
    K. Patkowski, A. E. DePrince III, U. Bozkaya, R. A. King,
    F. A. Evangelista, J. M. Turney, T. D. Crawford, C. D. Sherrill,
    J. Chem. Phys. 152(18) 184108 (2020). https://doi.org/10.1063/5.0006002

                            Additional Code Authors
    E. T. Seidl, C. L. Janssen, E. F. Valeev, M. L. Leininger,
    J. F. Gonthier, R. M. Richard, H. R. McAlexander, M. Saitow, X. Wang,
    P. Verma, M. H. Lechner, A. Jiang, S. Behnle, A. G. Heide,
    M. F. Herbst, and D. L. Poole

             Previous Authors, Complete List of Code Contributors,
                       and Citations for Specific Modules
    https://github.com/psi4/psi4/blob/master/codemeta.json
    https://github.com/psi4/psi4/graphs/contributors
    http://psicode.org/psi4manual/master/introduction.html#citing-psifour

    -----------------------------------------------------------------------


    Psi4 started on: Friday, 13 October 2023 01:01PM

    Process ID: 23918
    Host:       beboplogin2
    PSIDATADIR: /lcrc/project/PACC/conda/elliott/miniconda3/envs/jitterbug/share/psi4
    Memory:     3.8 GiB
    Threads:    12
    
  ==> Input QCSchema <==

--------------------------------------------------------------------------
{'driver': 'energy',
 'extras': {'psiapi': True, 'wfn_qcvars_only': True},
 'id': None,
 'keywords': {'CCTRANSORT__WFN': 'CCSD_T',
              'E_CONVERGENCE': 1e-08,
              'PARENT_SYMMETRY': 'C1',
              'SCF__D_CONVERGENCE': 1e-10,
              'SCF__E_CONVERGENCE': 1e-10,
              'SCF__INTS_TOLERANCE': 1e-12,
              'function_kwargs': {'write_orbitals': False}},
 'model': {'basis': 'cc-pvdz', 'method': 'ccsd(t)'},
 'molecule': {'atom_labels': ['', '', ''],
              'atomic_numbers': [8, 1, 1],
              'extras': {},
              'fix_com': True,
              'fix_orientation': True,
              'fix_symmetry': 'c1',
              'fragment_charges': [0.0],
              'fragment_multiplicities': [1],
              'fragments': [[0, 1, 2]],
              'geometry': [2.3955938468489535e-05, -0.12903503393904941, 0.0, 1.4174410280757042, 1.024196636918623,
                           0.0, -1.4178212262035457, 1.0236829897876534, 0.0],
              'mass_numbers': [16, 1, 1],
              'masses': [15.99491461957, 1.00782503223, 1.00782503223],
              'molecular_charge': 0.0,
              'molecular_multiplicity': 1,
              'name': 'H2O',
              'provenance': {'creator': 'QCElemental',
                             'routine': 'qcelemental.molparse.from_string',
                             'version': '0.26.0'},
              'real': [True, True, True],
              'schema_name': 'qcschema_molecule',
              'schema_version': 2,
              'symbols': ['O', 'H', 'H'],
              'validated': True},
 'protocols': {'stdout': True},
 'provenance': {'creator': 'QCElemental', 'routine': 'qcelemental.models.results', 'version': '0.26.0'},
 'schema_name': 'qcschema_input',
 'schema_version': 1}
--------------------------------------------------------------------------

Scratch directory: /tmp/
   => Libint2 <=

    Primary   basis highest AM E, G, H:  5, 4, 3
    Auxiliary basis highest AM E, G, H:  6, 5, 4
    Onebody   basis highest AM E, G, H:  6, 5, 4
    Solid Harmonics ordering:            gaussian

*** tstart() called on beboplogin2
*** at Fri Oct 13 13:35:01 2023

   => Loading Basis Set <=

    Name: CC-PVDZ
    Role: ORBITAL
    Keyword: BASIS
    atoms 1   entry O          line   198 file /lcrc/project/PACC/conda/elliott/miniconda3/envs/jitterbug/share/psi4/basis/cc-pvdz.gbs 
    atoms 2-3 entry H          line    22 file /lcrc/project/PACC/conda/elliott/miniconda3/envs/jitterbug/share/psi4/basis/cc-pvdz.gbs 


         ---------------------------------------------------------
                                   SCF
               by Justin Turney, Rob Parrish, Andy Simmonett
                          and Daniel G. A. Smith
                              RHF Reference
                       12 Threads,   3906 MiB Core
         ---------------------------------------------------------

  ==> Geometry <==

    Molecular point group: c1
    Full point group: Cs

    Geometry (in Bohr), charge = 0, multiplicity = 1:

       Center              X                  Y                   Z               Mass       
    ------------   -----------------  -----------------  -----------------  -----------------
         O            0.000023955938    -0.129035033939     0.000000000000    15.994914619570
         H            1.417441028076     1.024196636919     0.000000000000     1.007825032230
         H           -1.417821226204     1.023682989788     0.000000000000     1.007825032230

  Running in c1 symmetry.

  Rotational constants: A =     25.29792  B =     14.86116  C =      9.36168 [cm^-1]
  Rotational constants: A = 758412.56444  B = 445526.25448  C = 280656.04653 [MHz]
  Nuclear repulsion =    9.108784245398359

  Charge       = 0
  Multiplicity = 1
  Electrons    = 10
  Nalpha       = 5
  Nbeta        = 5

  ==> Algorithm <==

  SCF Algorithm Type is PK.
  DIIS enabled.
  MOM disabled.
  Fractional occupation disabled.
  Guess Type is SAD.
  Energy threshold   = 1.00e-10
  Density threshold  = 1.00e-10
  Integral threshold = 1.00e-12

  ==> Primary Basis <==

  Basis Set: CC-PVDZ
    Blend: CC-PVDZ
    Number of shells: 12
    Number of basis functions: 24
    Number of Cartesian functions: 25
    Spherical Harmonics?: true
    Max angular momentum: 2

  ==> Integral Setup <==

  Using in-core PK algorithm.
   Calculation information:
      Number of atoms:                   3
      Number of AO shells:              12
      Number of primitives:             32
      Number of atomic orbitals:        25
      Number of basis functions:        24

      Integral cutoff                 1.00e-12
      Number of threads:                12

  Performing in-core PK
  Using 90300 doubles for integral storage.
  We computed 7838 shell quartets total.
  Whereas there are 3081 unique shell quartets.
   154.40 percent of shell quartets recomputed by reordering.

  ==> DiskJK: Disk-Based J/K Matrices <==

    J tasked:                  Yes
    K tasked:                  Yes
    wK tasked:                  No
    Memory [MiB]:             2929
    Schwarz Cutoff:          1E-12

    OpenMP threads:             12

  Minimum eigenvalue in the overlap matrix is 3.4493118799E-02.
  Reciprocal condition number of the overlap matrix is 9.2939491535E-03.
    Using symmetric orthogonalization.

  ==> Pre-Iterations <==

  SCF Guess: Superposition of Atomic Densities via on-the-fly atomic UHF (no occupation information).

   -------------------------
    Irrep   Nso     Nmo    
   -------------------------
     A         24      24 
   -------------------------
    Total      24      24
   -------------------------

  ==> Iterations <==

                        Total Energy        Delta E     RMS |[F,P]|

   @RHF iter SAD:   -75.50129395687904   -7.55013e+01   0.00000e+00 
   @RHF iter   1:   -75.95227655637220   -4.50983e-01   1.74250e-02 ADIIS/DIIS
   @RHF iter   2:   -76.00593071927943   -5.36542e-02   1.01005e-02 ADIIS/DIIS
   @RHF iter   3:   -76.02555440205853   -1.96237e-02   1.07899e-03 ADIIS/DIIS
   @RHF iter   4:   -76.02602003087966   -4.65629e-04   2.17008e-04 ADIIS/DIIS
   @RHF iter   5:   -76.02604077215702   -2.07413e-05   3.92376e-05 DIIS
   @RHF iter   6:   -76.02604170784062   -9.35684e-07   5.87745e-06 DIIS
   @RHF iter   7:   -76.02604173003695   -2.21963e-08   7.10170e-07 DIIS
   @RHF iter   8:   -76.02604173035668   -3.19730e-10   1.65570e-07 DIIS
   @RHF iter   9:   -76.02604173037906   -2.23821e-11   3.46644e-08 DIIS
   @RHF iter  10:   -76.02604173038006   -9.94760e-13   2.91680e-09 DIIS
   @RHF iter  11:   -76.02604173038009   -2.84217e-14   5.01417e-10 DIIS
   @RHF iter  12:   -76.02604173038006    2.84217e-14   2.80889e-11 DIIS
  Energy and wave function converged.


  ==> Post-Iterations <==

    Orbital Energies [Eh]
    ---------------------

    Doubly Occupied:                                                      

       1A    -20.553644     2A     -1.334000     3A     -0.688882  
       4A     -0.570426     5A     -0.493471  

    Virtual:                                                              

       6A      0.183350     7A      0.255091     8A      0.773377  
       9A      0.857373    10A      1.166673    11A      1.199481  
      12A      1.256845    13A      1.420164    14A      1.483008  
      15A      1.657424    16A      1.863592    17A      1.940424  
      18A      2.423637    19A      2.471444    20A      3.291014  
      21A      3.319075    22A      3.505973    23A      3.837086  
      24A      4.151295  

    Final Occupation by Irrep:
              A 
    DOCC [     5 ]
    NA   [     5 ]
    NB   [     5 ]

  @RHF Final Energy:   -76.02604173038006

   => Energetics <=

    Nuclear Repulsion Energy =              9.1087842453983594
    One-Electron Energy =                -122.9888052181858029
    Two-Electron Energy =                  37.8539792424073909
    Total Energy =                        -76.0260417303800580

Computation Completed


Properties will be evaluated at   0.000000,   0.000000,   0.000000 [a0]

Properties computed using the SCF density matrix


 Multipole Moments:

 ------------------------------------------------------------------------------------
     Multipole            Electronic (a.u.)      Nuclear  (a.u.)        Total (a.u.)
 ------------------------------------------------------------------------------------

 L = 1.  Multiply by 2.5417464519 to convert [e a0] to [Debye]
 Dipole X            :          0.0000358           -0.0001886           -0.0001527
 Dipole Y            :         -0.1866311            1.0155994            0.8289683
 Dipole Z            :         -0.0000000            0.0000000           -0.0000000
 Magnitude           :                                                    0.8289683

 ------------------------------------------------------------------------------------

*** tstop() called on beboplogin2 at Fri Oct 13 13:35:01 2023
Module time:
	user time   =       4.96 seconds =       0.08 minutes
	system time =       0.37 seconds =       0.01 minutes
	total time  =          0 seconds =       0.00 minutes
Total time:
	user time   =    5970.67 seconds =      99.51 minutes
	system time =     460.23 seconds =       7.67 minutes
	total time  =       2023 seconds =      33.72 minutes
 MINTS: Wrapper to libmints.
   by Justin Turney

   Calculation information:
      Number of threads:                12
      Number of atoms:                   3
      Number of AO shells:              12
      Number of SO shells:              12
      Number of primitives:             32
      Number of atomic orbitals:        25
      Number of basis functions:        24

      Number of irreps:                  1
      Integral cutoff                 1.00e-12
      Number of functions per irrep: [  24 ]

 OEINTS: Overlap, kinetic, potential, dipole, and quadrupole integrals
         stored in file 35.

      Computing two-electron integrals...done
      Computed 22139 non-zero two-electron integrals.
        Stored in file 33.


*** tstart() called on beboplogin2
*** at Fri Oct 13 13:35:01 2023


	Wfn Parameters:
	--------------------
	Wavefunction         = CCSD_T
	Number of irreps     = 1
	Number of MOs        = 24
	Number of active MOs = 24
	AO-Basis             = NONE
	Semicanonical        = false
	Reference            = RHF
	Print Level          = 1

	IRREP	# MOs	# FZDC	# DOCC	# SOCC	# VIRT	# FZVR
	-----	-----	------	------	------	------	------
	 A	   24	    0	    5	    0	    19	    0
	Transforming integrals...
	IWL integrals will be deleted.
	(OO|OO)...
	Presorting SO-basis two-electron integrals.
	Sorting File: SO Ints (nn|nn) nbuckets = 1
	Constructing frozen core operators
	Starting first half-transformation.
	Sorting half-transformed integrals.
	First half integral transformation complete.
	Starting second half-transformation.
	Two-electron integral transformation complete.
	(OO|OV)...
	Starting second half-transformation.
	Two-electron integral transformation complete.
	(OO|VV)...
	Starting second half-transformation.
	Two-electron integral transformation complete.
	(OV|OO)...
	Starting first half-transformation.
	Sorting half-transformed integrals.
	First half integral transformation complete.
	Starting second half-transformation.
	Two-electron integral transformation complete.
	(OV|OV)...
	Starting second half-transformation.
	Two-electron integral transformation complete.
	(OV|VV)...
	Starting second half-transformation.
	Two-electron integral transformation complete.
	(VV|OO)...
	Starting first half-transformation.
	Sorting half-transformed integrals.
	First half integral transformation complete.
	Starting second half-transformation.
	Two-electron integral transformation complete.
	(VV|OV)...
	Starting second half-transformation.
	Two-electron integral transformation complete.
	(VV|VV)...
	Starting second half-transformation.
	Two-electron integral transformation complete.
	Frozen core energy     =      0.00000000000000

	Size of irrep 0 of <ab|cd> integrals:      0.130 (MW) /      1.043 (MB)
	Total:                                     0.130 (MW) /      1.043 (MB)

	Size of irrep 0 of <ia|bc> integrals:      0.034 (MW) /      0.274 (MB)
	Total:                                     0.034 (MW) /      0.274 (MB)

	Size of irrep 0 of tijab amplitudes:       0.009 (MW) /      0.072 (MB)
	Total:                                     0.009 (MW) /      0.072 (MB)

	Nuclear Rep. energy          =      9.10878424539836
	SCF energy                   =    -76.02604173038006
	One-electron energy          =   -122.98880521789370
	Two-electron energy          =     37.85397924211531
	Reference energy             =    -76.02604173038004

*** tstop() called on beboplogin2 at Fri Oct 13 13:35:02 2023
Module time:
	user time   =       1.36 seconds =       0.02 minutes
	system time =       0.18 seconds =       0.00 minutes
	total time  =          1 seconds =       0.02 minutes
Total time:
	user time   =    5973.12 seconds =      99.55 minutes
	system time =     460.53 seconds =       7.68 minutes
	total time  =       2024 seconds =      33.73 minutes
            **************************
            *                        *
            *        CCENERGY        *
            *                        *
            **************************

    Nuclear Rep. energy (wfn)     =    9.108784245398359
    SCF energy          (wfn)     =  -76.026041730380058
    Reference energy    (file100) =  -76.026041730380044

    Input parameters:
    -----------------
    Wave function   =     CCSD_T
    Reference wfn   =     RHF
    Brueckner       =     No
    Memory (Mbytes) =     4096.0
    Maxiter         =     50
    R_Convergence   =     1.0e-07
    E_Convergence   =     1.0e-08
    Restart         =     Yes
    DIIS            =     Yes
    AO Basis        =     NONE
    ABCD            =     NEW
    Cache Level     =     2
    Cache Type      =     LOW
    Print Level     =     1
    Num. of threads =     12
    # Amps to Print =     10
    Print MP2 Amps? =     No
    Analyze T2 Amps =     No
    Print Pair Ener =     No
    Local CC        =     No
    SCS-MP2         =     False
    SCSN-MP2        =     False
    SCS-CCSD        =     False

MP2 correlation energy -0.2049346592406275
                Solving CC Amplitude Equations
                ------------------------------
  Iter             Energy              RMS        T1Diag      D1Diag    New D1Diag    D2Diag
  ----     ---------------------    ---------   ----------  ----------  ----------   --------
     0        -0.204934659240628    0.000e+00    0.000000    0.000000    0.000000    0.110696
     1        -0.209732422788857    2.701e-02    0.004141    0.008836    0.008836    0.117651
     2        -0.213770713343393    9.621e-03    0.004885    0.010180    0.010180    0.123174
     3        -0.214208021441069    2.548e-03    0.005340    0.010996    0.010996    0.124480
     4        -0.214219043054198    5.803e-04    0.005382    0.011209    0.011209    0.124691
     5        -0.214231196315719    1.728e-04    0.005405    0.011323    0.011323    0.124729
     6        -0.214229264156490    5.695e-05    0.005414    0.011369    0.011369    0.124722
     7        -0.214229030425045    1.535e-05    0.005417    0.011384    0.011384    0.124720
     8        -0.214228903299559    2.698e-06    0.005417    0.011386    0.011386    0.124720
     9        -0.214228852804603    6.682e-07    0.005417    0.011386    0.011386    0.124720
    10        -0.214228868435028    1.360e-07    0.005417    0.011386    0.011386    0.124720
    11        -0.214228866969491    2.901e-08    0.005417    0.011386    0.011386    0.124720
[...]
 'schema_name': 'qcschema_input',
 'schema_version': 1}
--------------------------------------------------------------------------

Scratch directory: /tmp/
   => Libint2 <=

    Primary   basis highest AM E, G, H:  5, 4, 3
    Auxiliary basis highest AM E, G, H:  6, 5, 4
    Onebody   basis highest AM E, G, H:  6, 5, 4
    Solid Harmonics ordering:            gaussian

*** tstart() called on beboplogin2
*** at Fri Oct 13 13:36:12 2023

   => Loading Basis Set <=

    Name: CC-PVDZ
    Role: ORBITAL
    Keyword: BASIS
    atoms 1   entry O          line   198 file /lcrc/project/PACC/conda/elliott/miniconda3/envs/jitterbug/share/psi4/basis/cc-pvdz.gbs 
    atoms 2-3 entry H          line    22 file /lcrc/project/PACC/conda/elliott/miniconda3/envs/jitterbug/share/psi4/basis/cc-pvdz.gbs 


         ---------------------------------------------------------
                                   SCF
               by Justin Turney, Rob Parrish, Andy Simmonett
                          and Daniel G. A. Smith
                              RHF Reference
                       12 Threads,   3906 MiB Core
         ---------------------------------------------------------

  ==> Geometry <==

    Molecular point group: c1
    Full point group: C1

    Geometry (in Bohr), charge = 0, multiplicity = 1:

       Center              X                  Y                   Z               Mass       
    ------------   -----------------  -----------------  -----------------  -----------------
         O           -0.000010574423    -0.065561422563     0.000000000000    15.994914619570
         H            1.014772354948     0.516731894601    -0.003521781729     1.007825032230
         H           -1.014604531181     0.523775458058     0.003521781729     1.007825032230

  Running in c1 symmetry.

  Rotational constants: A =     97.99640  B =     29.00689  C =     22.38187 [cm^-1]
  Rotational constants: A = 2937858.15555  B = 869604.75508  C = 670991.54523 [MHz]
  Nuclear repulsion =   14.148589068649530

  Charge       = 0
  Multiplicity = 1
  Electrons    = 10
  Nalpha       = 5
  Nbeta        = 5

  ==> Algorithm <==

  SCF Algorithm Type is PK.
  DIIS enabled.
  MOM disabled.
  Fractional occupation disabled.
  Guess Type is SAD.
  Energy threshold   = 1.00e-11
  Density threshold  = 1.00e-11
  Integral threshold = 1.00e-12

  ==> Primary Basis <==

  Basis Set: CC-PVDZ
    Blend: CC-PVDZ
    Number of shells: 12
    Number of basis functions: 24
    Number of Cartesian functions: 25
    Spherical Harmonics?: true
    Max angular momentum: 2

  ==> Integral Setup <==

  Using in-core PK algorithm.
   Calculation information:
      Number of atoms:                   3
      Number of AO shells:              12
      Number of primitives:             32
      Number of atomic orbitals:        25
      Number of basis functions:        24

      Integral cutoff                 1.00e-12
      Number of threads:                12

  Performing in-core PK
  Using 90300 doubles for integral storage.
  We computed 7838 shell quartets total.
  Whereas there are 3081 unique shell quartets.
   154.40 percent of shell quartets recomputed by reordering.

  ==> DiskJK: Disk-Based J/K Matrices <==

    J tasked:                  Yes
    K tasked:                  Yes
    wK tasked:                  No
    Memory [MiB]:             2929
    Schwarz Cutoff:          1E-12

    OpenMP threads:             12

  Minimum eigenvalue in the overlap matrix is 1.2965516709E-02.
  Reciprocal condition number of the overlap matrix is 2.9964258142E-03.
    Using symmetric orthogonalization.

  ==> Pre-Iterations <==

  SCF Guess: Superposition of Atomic Densities via on-the-fly atomic UHF (no occupation information).

   -------------------------
    Irrep   Nso     Nmo    
   -------------------------
     A         24      24 
   -------------------------
    Total      24      24
   -------------------------

  ==> Iterations <==

                        Total Energy        Delta E     RMS |[F,P]|

   @RHF iter SAD:   -75.49064129567779   -7.54906e+01   0.00000e+00 
   @RHF iter   1:   -75.38422196213912    1.06419e-01   2.22319e-02 ADIIS/DIIS
   @RHF iter   2:   -75.45957422966720   -7.53523e-02   9.28013e-03 ADIIS/DIIS
   @RHF iter   3:   -75.47383732307149   -1.42631e-02   8.89598e-04 ADIIS/DIIS
   @RHF iter   4:   -75.47408593833859   -2.48615e-04   8.75749e-05 DIIS
   @RHF iter   5:   -75.47408817284138   -2.23450e-06   1.11166e-05 DIIS
   @RHF iter   6:   -75.47408822349119   -5.06498e-08   2.05433e-06 DIIS
   @RHF iter   7:   -75.47408822551790   -2.02671e-09   2.94948e-07 DIIS
   @RHF iter   8:   -75.47408822556571   -4.78053e-11   4.48980e-08 DIIS
   @RHF iter   9:   -75.47408822556697   -1.26477e-12   5.49549e-09 DIIS
   @RHF iter  10:   -75.47408822556702   -4.26326e-14   8.96187e-10 DIIS
   @RHF iter  11:   -75.47408822556697    4.26326e-14   5.95670e-11 DIIS
   @RHF iter  12:   -75.47408822556699   -1.42109e-14   8.90218e-12 DIIS
  Energy and wave function converged.


  ==> Post-Iterations <==

    Orbital Energies [Eh]
    ---------------------

    Doubly Occupied:                                                      

       1A    -20.490015     2A     -1.562279     3A     -0.980323  
       4A     -0.599455     5A     -0.534161  

    Virtual:                                                              

       6A      0.228782     7A      0.275686     8A      1.055499  
       9A      1.090890    10A      1.137146    11A      1.219689  
      12A      1.320467    13A      1.546546    14A      1.559880  
      15A      2.048675    16A      2.053001    17A      2.285661  
      18A      3.339131    19A      3.453093    20A      3.462695  
      21A      3.816173    22A      3.832297    23A      4.816640  
      24A      5.425850  

    Final Occupation by Irrep:
              A 
    DOCC [     5 ]
    NA   [     5 ]
    NB   [     5 ]

  @RHF Final Energy:   -75.47408822556699

   => Energetics <=

    Nuclear Repulsion Energy =             14.1485890686495299
    One-Electron Energy =                -130.9128894142576200
    Two-Electron Energy =                  41.2902121200411187
    Total Energy =                        -75.4740882255669732

Computation Completed


Properties will be evaluated at   0.000000,   0.000000,   0.000000 [a0]

Properties computed using the SCF density matrix


 Multipole Moments:

 ------------------------------------------------------------------------------------
     Multipole            Electronic (a.u.)      Nuclear  (a.u.)        Total (a.u.)
 ------------------------------------------------------------------------------------

 L = 1.  Multiply by 2.5417464519 to convert [e a0] to [Debye]
 Dipole X            :          0.0006490            0.0000832            0.0007322
 Dipole Y            :          0.0689521            0.5160160            0.5849680
 Dipole Z            :         -0.0000022            0.0000000           -0.0000022
 Magnitude           :                                                    0.5849685

 ------------------------------------------------------------------------------------

*** tstop() called on beboplogin2 at Fri Oct 13 13:36:12 2023
Module time:
	user time   =       4.86 seconds =       0.08 minutes
	system time =       0.37 seconds =       0.01 minutes
	total time  =          0 seconds =       0.00 minutes
Total time:
	user time   =    6730.73 seconds =     112.18 minutes
	system time =     540.08 seconds =       9.00 minutes
	total time  =       2094 seconds =      34.90 minutes
 MINTS: Wrapper to libmints.
   by Justin Turney

   Calculation information:
      Number of threads:                12
      Number of atoms:                   3
      Number of AO shells:              12
      Number of SO shells:              12
      Number of primitives:             32
      Number of atomic orbitals:        25
      Number of basis functions:        24

      Number of irreps:                  1
      Integral cutoff                 1.00e-12
      Number of functions per irrep: [  24 ]

 OEINTS: Overlap, kinetic, potential, dipole, and quadrupole integrals
         stored in file 35.

      Computing two-electron integrals...done
      Computed 39947 non-zero two-electron integrals.
        Stored in file 33.


*** tstart() called on beboplogin2
*** at Fri Oct 13 13:36:12 2023


	Wfn Parameters:
	--------------------
	Wavefunction         = CCSD_T
	Number of irreps     = 1
	Number of MOs        = 24
	Number of active MOs = 24
	AO-Basis             = NONE
	Semicanonical        = false
	Reference            = RHF
	Print Level          = 1

	IRREP	# MOs	# FZDC	# DOCC	# SOCC	# VIRT	# FZVR
	-----	-----	------	------	------	------	------
	 A	   24	    0	    5	    0	    19	    0
	Transforming integrals...
	IWL integrals will be deleted.
	(OO|OO)...
	Presorting SO-basis two-electron integrals.
	Sorting File: SO Ints (nn|nn) nbuckets = 1
	Constructing frozen core operators
	Starting first half-transformation.
	Sorting half-transformed integrals.
	First half integral transformation complete.
	Starting second half-transformation.
	Two-electron integral transformation complete.
	(OO|OV)...
	Starting second half-transformation.
	Two-electron integral transformation complete.
	(OO|VV)...
	Starting second half-transformation.
	Two-electron integral transformation complete.
	(OV|OO)...
	Starting first half-transformation.
	Sorting half-transformed integrals.
	First half integral transformation complete.
	Starting second half-transformation.
	Two-electron integral transformation complete.
	(OV|OV)...
	Starting second half-transformation.
	Two-electron integral transformation complete.
	(OV|VV)...
	Starting second half-transformation.
	Two-electron integral transformation complete.
	(VV|OO)...
	Starting first half-transformation.
	Sorting half-transformed integrals.
	First half integral transformation complete.
	Starting second half-transformation.
	Two-electron integral transformation complete.
	(VV|OV)...
	Starting second half-transformation.
	Two-electron integral transformation complete.
	(VV|VV)...
	Starting second half-transformation.
	Two-electron integral transformation complete.
	Frozen core energy     =      0.00000000000000

	Size of irrep 0 of <ab|cd> integrals:      0.130 (MW) /      1.043 (MB)
	Total:                                     0.130 (MW) /      1.043 (MB)

	Size of irrep 0 of <ia|bc> integrals:      0.034 (MW) /      0.274 (MB)
	Total:                                     0.034 (MW) /      0.274 (MB)

	Size of irrep 0 of tijab amplitudes:       0.009 (MW) /      0.072 (MB)
	Total:                                     0.009 (MW) /      0.072 (MB)

	Nuclear Rep. energy          =     14.14858906864953
	SCF energy                   =    -75.47408822556699
	One-electron energy          =   -130.91288941424833
	Two-electron energy          =     41.29021212003188
	Reference energy             =    -75.47408822556692

*** tstop() called on beboplogin2 at Fri Oct 13 13:36:12 2023
Module time:
	user time   =       1.44 seconds =       0.02 minutes
	system time =       0.18 seconds =       0.00 minutes
	total time  =          0 seconds =       0.00 minutes
Total time:
	user time   =    6733.26 seconds =     112.22 minutes
	system time =     540.39 seconds =       9.01 minutes
	total time  =       2094 seconds =      34.90 minutes
            **************************
            *                        *
            *        CCENERGY        *
            *                        *
            **************************

    Nuclear Rep. energy (wfn)     =   14.148589068649530
    SCF energy          (wfn)     =  -75.474088225566987
    Reference energy    (file100) =  -75.474088225566916

    Input parameters:
    -----------------
    Wave function   =     CCSD_T
    Reference wfn   =     RHF
    Brueckner       =     No
    Memory (Mbytes) =     4096.0
    Maxiter         =     50
    R_Convergence   =     1.0e-07
    E_Convergence   =     1.0e-10
    Restart         =     Yes
    DIIS            =     Yes
    AO Basis        =     NONE
    ABCD            =     NEW
    Cache Level     =     2
    Cache Type      =     LOW
    Print Level     =     1
    Num. of threads =     12
    # Amps to Print =     10
    Print MP2 Amps? =     No
    Analyze T2 Amps =     No
    Print Pair Ener =     No
    Local CC        =     No
    SCS-MP2         =     False
    SCSN-MP2        =     False
    SCS-CCSD        =     False

MP2 correlation energy -0.1809415189869051
                Solving CC Amplitude Equations
                ------------------------------
  Iter             Energy              RMS        T1Diag      D1Diag    New D1Diag    D2Diag
  ----     ---------------------    ---------   ----------  ----------  ----------   --------
     0        -0.180941518986905    0.000e+00    0.000000    0.000000    0.000000    0.089164
     1        -0.187760524667147    1.805e-02    0.002944    0.006535    0.006535    0.094433
     2        -0.189821267106031    4.990e-03    0.003429    0.007390    0.007390    0.096648
     3        -0.189956692411759    1.029e-03    0.003635    0.007848    0.007848    0.096995
     4        -0.189951867505696    2.306e-04    0.003655    0.007865    0.007865    0.097041
     5        -0.189953524436709    5.993e-05    0.003660    0.007873    0.007873    0.097044
     6        -0.189953255662495    1.918e-05    0.003661    0.007872    0.007872    0.097042
     7        -0.189953173497900    3.521e-06    0.003661    0.007872    0.007872    0.097042
     8        -0.189953188135702    4.671e-07    0.003661    0.007872    0.007872    0.097042
     9        -0.189953183732220    7.151e-08    0.003661    0.007872    0.007872    0.097042
    10        -0.189953184830858    1.302e-08    0.003661    0.007872    0.007872    0.097042
    11        -0.189953184950324    2.576e-09    0.003661    0.007872    0.007872    0.097042
    12        -0.189953185010709    4.624e-10    0.003661    0.007872    0.007872    0.097042
    13        -0.189953185007857    7.662e-11    0.003661    0.007872    0.007872    0.097042

    Iterations converged.


    Largest TIA Amplitudes:
              2   1         0.0067426050
              1   0        -0.0058199703
              3   2        -0.0033014997
              2  14        -0.0028007100
              3   5         0.0025473084
              4   3        -0.0022300118
              1   5        -0.0018483280
              2  17         0.0018062003
              3   0         0.0017523580
              3   7         0.0016779016

    Largest TIjAb Amplitudes:
      4   4   3   3        -0.0438091048
      3   3   2   2        -0.0371724950
      3   4   2   3        -0.0281860143
      4   3   3   2        -0.0281860143
      2   2   6   6        -0.0258829750
      2   2   5   5        -0.0226438697
      2   4   6   3        -0.0185462461
      4   2   3   6        -0.0185462461
      3   3   9   9        -0.0182043689
      2   3   6   2        -0.0177288171

    SCF energy       (wfn)                    =  -75.474088225566987
    Reference energy (file100)                =  -75.474088225566916

    Opposite-spin MP2 correlation energy      =   -0.133509295932743
    Same-spin MP2 correlation energy          =   -0.047432223054162
    Singles MP2 correlation energy            =   -0.000000000000000
    MP2 correlation energy                    =   -0.180941518986905
      * MP2 total energy                      =  -75.655029744553815

    Opposite-spin CCSD correlation energy     =   -0.145095307156261
    Same-spin CCSD correlation energy         =   -0.044857877851596
    Singles CCSD correlation energy           =    0.000000000000000
    CCSD correlation energy                   =   -0.189953185007857
      * CCSD total energy                     =  -75.664041410574768

            **************************
            *                        *
            *        CCTRIPLES       *
            *                        *
            **************************


    Wave function   =    CCSD_T
    Reference wfn   =      RHF

    Nuclear Rep. energy (wfn)                =   14.148589068649530
    SCF energy          (wfn)                =  -75.474088225566987
    Reference energy    (file100)            =  -75.474088225566916
    CCSD energy         (file100)            =   -0.189953185007857
    Total CCSD energy   (file100)            =  -75.664041410574768

    Number of ijk index combinations:               35
    Memory available in words               :       512000000
    Approx. words needed per explicit thread:           27436
    Number of threads for explicit ijk threading:   12

    MKL num_threads set to 1 for explicit threading.

    (T) energy                                =   -0.001988131468657
      * CCSD(T) total energy                  =  -75.666029542043432


    Psi4 stopped on: Friday, 13 October 2023 01:36PM
    Psi4 wall time for execution: 0:00:01.54


  //>>>>>>>>>>>>>>>>>>>>>>>>>>>>>>>>>>>//
  //      FiniteDifference Results     //
  //<<<<<<<<<<<<<<<<<<<<<<<<<<<<<<<<<<<//

  Computing gradient from energies.
    Using 3-point formula.
    Energy without displacement:  -75.6660193567
    Check energies below for precision!
    Forces are for mass-weighted, symmetry-adapted cartesians [a0].

     Coord      Energy(-1)        Energy(+1)            Force
        0    -75.6659624495    -75.6659679277     -0.0005478218
        1    -75.6711582932    -75.6608640329      1.0294260243
        2    -75.6660357743    -75.6660357743      0.0000000000
        3    -75.6575754275    -75.6743657737     -1.6790346190
        4    -75.6660149733    -75.6660110895      0.0003883839
        5    -75.6660339252    -75.6660339252      0.0000000000
         -------------------------------------------------------------
  Computing second-derivative from energies using projected, 
  symmetry-adapted, cartesian coordinates.

  43 energies passed in, including the reference geometry.
    Using 3-point formula.
    Energy without displacement:  -75.6660193567
    Check energies below for precision!
    0: -1        :       -75.6659624495
    0: 1         :       -75.6659679277
    1: -1        :       -75.6711582932
    1: 1         :       -75.6608640329
    2: -1        :       -75.6660357743
    2: 1         :       -75.6660357743
    3: -1        :       -75.6575754275
    3: 1         :       -75.6743657737
    4: -1        :       -75.6660149733
    4: 1         :       -75.6660110895
    5: -1        :       -75.6660339252
    5: 1         :       -75.6660339252
    0: 1, 1: 1   :       -75.6608120452
    0: -1, 1: -1 :       -75.6711019998
    0: 1, 2: 1   :       -75.6659843470
    0: -1, 2: -1 :       -75.6659788690
    1: 1, 2: 1   :       -75.6608806079
    1: -1, 2: -1 :       -75.6711745541
    0: 1, 3: 1   :       -75.6743147925
    0: -1, 3: -1 :       -75.6575180219
    1: 1, 3: 1   :       -75.6692832587
    1: -1, 3: -1 :       -75.6627878391
    2: 1, 3: 1   :       -75.6743819596
    2: -1, 3: -1 :       -75.6575920800
    0: 1, 4: 1   :       -75.6660364675
    0: -1, 4: -1 :       -75.6660348734
    1: 1, 4: 1   :       -75.6608559327
    1: -1, 4: -1 :       -75.6711537297
    2: 1, 4: 1   :       -75.6660275074
    2: -1, 4: -1 :       -75.6660313911
    3: 1, 4: 1   :       -75.6743576653
    3: -1, 4: -1 :       -75.6575709346
    0: 1, 5: 1   :       -75.6659824978
    0: -1, 5: -1 :       -75.6659770198
    1: 1, 5: 1   :       -75.6608787287
    1: -1, 5: -1 :       -75.6711727351
    2: 1, 5: 1   :       -75.6660503539
    2: -1, 5: -1 :       -75.6660503539
    3: 1, 5: 1   :       -75.6743801240
    3: -1, 5: -1 :       -75.6575902174
    4: 1, 5: 1   :       -75.6660256583
    4: -1, 5: -1 :       -75.6660295420

-------------------------------------------------------------
