15
Properties=species:S:1:pos:R:3:forces:R:3 energy=-6312.931899236615 pbc="F F F"
O       -2.46099625       0.30400633       0.00664666       0.00150582       0.00422822       0.00291549
C       -0.02318923       0.35540218       0.00118723      -0.00454492      -0.00182540      -0.00246029
C        1.24298115      -0.50042072       0.00199845       0.00106491      -0.00471599       0.00132566
C       -1.29895126      -0.47562768      -0.02384274       0.00005363       0.00105395       0.00017410
C        2.52870953       0.32241612      -0.00169849       0.00186442      -0.00066075       0.00284594
H       -0.04227505       0.99972921       0.88360338      -0.00052076      -0.00166271      -0.00411502
H       -0.01194864       1.02023022      -0.86963743      -0.00041240       0.00074213      -0.00118623
H        1.23504112      -1.16094569      -0.86982324       0.00263783       0.00121566      -0.00031123
H        1.23520323      -1.15469205       0.87835856       0.00000070       0.00030696      -0.00310593
H       -1.30174581      -1.13110192      -0.90074195      -0.00514522      -0.00331271      -0.00255223
H       -1.34402088      -1.11783613       0.85471976      -0.00110999       0.00066497       0.00178389
H        2.58595281       0.96091585      -0.88551485       0.00048954       0.00167196       0.00071198
H        2.58747547       0.96697169       0.87749230       0.00080144      -0.00047518      -0.00208196
H        3.40784233      -0.32296272      -0.00098172       0.00381217       0.00325916       0.00376771
H       -2.51387852       0.85501531      -0.75586592      -0.00049717      -0.00049027       0.00228812
