9
Properties=species:S:1:pos:R:3:forces:R:3 energy=-4219.183355076225 pbc="F F F"
O       -1.20660609       0.27599897       0.00200478      -0.00131898      -0.00214748       0.00178533
C       -0.04878586      -0.53660786       0.01294783      -0.00116184      -0.00165326      -0.00393108
C        1.23702728       0.26975117      -0.00501294       0.00288443       0.00222481      -0.00229441
H       -0.05672991      -1.21494024       0.87426720       0.00123500      -0.00094334      -0.00342617
H       -0.11744610      -1.15386658      -0.88265965      -0.00079070       0.00199766      -0.00149905
H        2.10570356      -0.38865334      -0.04909563       0.00009022       0.00056849      -0.00275001
H        1.25894125       0.93270684      -0.86944734      -0.00320708       0.00241051       0.00055565
H        1.32771363       0.88005412       0.89622697       0.00015218       0.00033017       0.00162825
H       -1.19362601       0.82907126       0.78331642       0.00309952       0.00264776       0.00351593
